ITEM: TIMESTEP
0
ITEM: NUMBER OF ATOMS
8000
ITEM: BOX BOUNDS mm mm pp
0.0000000000000000e+00 4.0700000000000003e+01
-2.8779245994292480e-03 2.8779245994292481e+01
0.0000000000000000e+00 2.3023396795433985e+02
ITEM: ATOMS id type x y z 
2618 1 16.28 2.87792 2.87792 
2659 1 16.28 2.87792 0 
7232 1 18.315 1.43896 1.43896 
7229 1 20.35 2.87792 0 
7230 1 20.35 0 0 
7231 1 20.35 0 2.87792 
7238 1 20.35 2.87792 2.87792 
5622 1 24.42 2.87792 0 
5625 1 22.385 1.43896 1.43896 
5631 1 24.42 2.87792 2.87792 
2621 1 14.245 4.31689 1.43896 
7213 1 12.21 5.75585 2.87792 
7214 1 12.21 5.75585 0 
2622 1 16.28 5.75585 2.87792 
2626 1 16.28 5.75585 0 
7236 1 18.315 4.31689 1.43896 
7234 1 20.35 5.75585 0 
7235 1 20.35 5.75585 2.87792 
5627 1 24.42 5.75585 0 
5628 1 24.42 5.75585 2.87792 
5629 1 22.385 4.31689 1.43896 
4020 1 28.49 5.75585 0 
4021 1 28.49 5.75585 2.87792 
4022 1 26.455 4.31689 1.43896 
838 1 6.105 10.0727 1.43896 
800 1 8.14 8.63377 2.87792 
901 1 8.14 8.63377 0 
7128 1 10.175 10.0727 1.43896 
7195 1 10.175 7.19481 1.43896 
2591 1 14.245 10.0727 1.43896 
2619 1 14.245 7.19481 1.43896 
7090 1 12.21 8.63377 2.87792 
7215 1 12.21 8.63377 0 
2589 1 16.28 8.63377 2.87792 
2628 1 16.28 8.63377 0 
7237 1 18.315 7.19481 1.43896 
7248 1 18.315 10.0727 1.43896 
7233 1 20.35 8.63377 0 
7250 1 20.35 8.63377 2.87792 
5626 1 24.42 8.63377 0 
5630 1 22.385 7.19481 1.43896 
5641 1 22.385 10.0727 1.43896 
5643 1 24.42 8.63377 2.87792 
4019 1 28.49 8.63377 0 
4023 1 26.455 7.19481 1.43896 
4034 1 26.455 10.0727 1.43896 
4036 1 28.49 8.63377 2.87792 
2412 1 32.56 8.63377 0 
2416 1 30.525 7.19481 1.43896 
2427 1 30.525 10.0727 1.43896 
2429 1 32.56 8.63377 2.87792 
820 1 34.595 10.0727 1.43896 
2943 1 2.035 12.9507 1.43896 
837 1 6.105 12.9507 1.43896 
2944 1 4.07 11.5117 2.87792 
2945 1 4.07 11.5117 0 
839 1 8.14 11.5117 2.87792 
841 1 8.14 11.5117 0 
7092 1 10.175 12.9507 1.43896 
2590 1 14.245 12.9507 1.43896 
7129 1 12.21 11.5117 2.87792 
7130 1 12.21 11.5117 0 
2592 1 16.28 11.5117 2.87792 
2593 1 16.28 11.5117 0 
7249 1 18.315 12.9507 1.43896 
7246 1 20.35 11.5117 0 
7247 1 20.35 11.5117 2.87792 
5639 1 24.42 11.5117 0 
5640 1 24.42 11.5117 2.87792 
5642 1 22.385 12.9507 1.43896 
4032 1 28.49 11.5117 0 
4033 1 28.49 11.5117 2.87792 
4035 1 26.455 12.9507 1.43896 
2425 1 32.56 11.5117 0 
2426 1 32.56 11.5117 2.87792 
2428 1 30.525 12.9507 1.43896 
818 1 36.63 11.5117 0 
819 1 36.63 11.5117 2.87792 
821 1 34.595 12.9507 1.43896 
8 1 38.665 12.9507 1.43896 
781 1 6.105 15.8286 1.43896 
2823 1 4.07 14.3896 2.87792 
2946 1 4.07 14.3896 0 
775 1 8.14 14.3896 2.87792 
782 1 8.14 17.2675 2.87792 
783 1 8.14 17.2675 0 
865 1 8.14 14.3896 0 
6928 1 10.175 15.8286 1.43896 
2541 1 14.245 15.8286 1.43896 
6890 1 12.21 14.3896 2.87792 
6929 1 12.21 17.2675 2.87792 
6930 1 12.21 17.2675 0 
7132 1 12.21 14.3896 0 
2506 1 16.28 14.3896 2.87792 
2545 1 16.28 17.2675 2.87792 
2546 1 16.28 17.2675 0 
2594 1 16.28 14.3896 0 
7268 1 18.315 15.8286 1.43896 
7245 1 20.35 14.3896 0 
7266 1 20.35 17.2675 0 
7267 1 20.35 17.2675 2.87792 
7270 1 20.35 14.3896 2.87792 
5638 1 24.42 14.3896 0 
5659 1 24.42 17.2675 0 
5660 1 24.42 17.2675 2.87792 
5661 1 22.385 15.8286 1.43896 
5663 1 24.42 14.3896 2.87792 
4031 1 28.49 14.3896 0 
4052 1 28.49 17.2675 0 
4053 1 28.49 17.2675 2.87792 
4054 1 26.455 15.8286 1.43896 
4056 1 28.49 14.3896 2.87792 
2424 1 32.56 14.3896 0 
2445 1 32.56 17.2675 0 
2446 1 32.56 17.2675 2.87792 
2447 1 30.525 15.8286 1.43896 
2449 1 32.56 14.3896 2.87792 
817 1 36.63 14.3896 0 
840 1 34.595 15.8286 1.43896 
842 1 36.63 14.3896 2.87792 
6892 1 10.175 18.7065 1.43896 
2537 1 14.245 18.7065 1.43896 
6646 1 12.21 20.1455 2.87792 
6932 1 12.21 20.1455 0 
2444 1 16.28 20.1455 2.87792 
2547 1 16.28 20.1455 0 
7269 1 18.315 18.7065 1.43896 
7265 1 20.35 20.1455 0 
7298 1 20.35 20.1455 2.87792 
5658 1 24.42 20.1455 0 
5662 1 22.385 18.7065 1.43896 
5691 1 24.42 20.1455 2.87792 
4051 1 28.49 20.1455 0 
4055 1 26.455 18.7065 1.43896 
4084 1 28.49 20.1455 2.87792 
2448 1 30.525 18.7065 1.43896 
2461 1 14.245 21.5844 1.43896 
2462 1 16.28 23.0234 2.87792 
2463 1 16.28 23.0234 0 
7296 1 18.315 21.5844 1.43896 
7297 1 18.315 24.4624 1.43896 
7294 1 20.35 23.0234 0 
7295 1 20.35 23.0234 2.87792 
5687 1 24.42 23.0234 0 
5688 1 24.42 23.0234 2.87792 
5689 1 22.385 21.5844 1.43896 
5690 1 22.385 24.4624 1.43896 
4082 1 26.455 21.5844 1.43896 
7293 1 20.35 25.9013 0 
7330 1 20.35 25.9013 2.87792 
2617 1 16.28 2.87792 5.75585 
7240 1 18.315 1.43896 4.31689 
7239 1 20.35 2.87792 5.75585 
7242 1 20.35 0 5.75585 
5632 1 24.42 2.87792 5.75585 
5633 1 22.385 1.43896 4.31689 
2596 1 14.245 4.31689 4.31689 
7050 1 12.21 5.75585 5.75585 
2585 1 16.28 5.75585 5.75585 
7241 1 18.315 4.31689 4.31689 
7254 1 20.35 5.75585 5.75585 
5634 1 22.385 4.31689 4.31689 
5647 1 24.42 5.75585 5.75585 
4027 1 26.455 4.31689 4.31689 
4040 1 28.49 5.75585 5.75585 
797 1 6.105 10.0727 4.31689 
799 1 8.14 8.63377 5.75585 
7052 1 10.175 10.0727 4.31689 
7088 1 10.175 7.19481 4.31689 
2586 1 14.245 10.0727 4.31689 
2587 1 14.245 7.19481 4.31689 
7089 1 12.21 8.63377 5.75585 
2588 1 16.28 8.63377 5.75585 
7252 1 18.315 7.19481 4.31689 
7253 1 18.315 10.0727 4.31689 
7251 1 20.35 8.63377 5.75585 
5644 1 24.42 8.63377 5.75585 
5645 1 22.385 7.19481 4.31689 
5646 1 22.385 10.0727 4.31689 
4037 1 28.49 8.63377 5.75585 
4038 1 26.455 7.19481 4.31689 
4039 1 26.455 10.0727 4.31689 
2430 1 32.56 8.63377 5.75585 
2431 1 30.525 7.19481 4.31689 
2432 1 30.525 10.0727 4.31689 
825 1 34.595 10.0727 4.31689 
2821 1 2.035 12.9507 4.31689 
772 1 6.105 12.9507 4.31689 
2818 1 4.07 11.5117 5.75585 
770 1 8.14 11.5117 5.75585 
6888 1 10.175 12.9507 4.31689 
2504 1 14.245 12.9507 4.31689 
6850 1 12.21 11.5117 5.75585 
2502 1 16.28 11.5117 5.75585 
7272 1 18.315 12.9507 4.31689 
7274 1 20.35 11.5117 5.75585 
5665 1 22.385 12.9507 4.31689 
5667 1 24.42 11.5117 5.75585 
4058 1 26.455 12.9507 4.31689 
4060 1 28.49 11.5117 5.75585 
2451 1 30.525 12.9507 4.31689 
2453 1 32.56 11.5117 5.75585 
844 1 34.595 12.9507 4.31689 
846 1 36.63 11.5117 5.75585 
18 1 38.665 12.9507 4.31689 
771 1 6.105 15.8286 4.31689 
2822 1 4.07 14.3896 5.75585 
713 1 8.14 17.2675 5.75585 
773 1 8.14 14.3896 5.75585 
6852 1 10.175 15.8286 4.31689 
2503 1 14.245 15.8286 4.31689 
6606 1 12.21 17.2675 5.75585 
6889 1 12.21 14.3896 5.75585 
2440 1 16.28 17.2675 5.75585 
2505 1 16.28 14.3896 5.75585 
7273 1 18.315 15.8286 4.31689 
7271 1 20.35 14.3896 5.75585 
7302 1 20.35 17.2675 5.75585 
5664 1 24.42 14.3896 5.75585 
5666 1 22.385 15.8286 4.31689 
5695 1 24.42 17.2675 5.75585 
4057 1 28.49 14.3896 5.75585 
4059 1 26.455 15.8286 4.31689 
4088 1 28.49 17.2675 5.75585 
2450 1 32.56 14.3896 5.75585 
2452 1 30.525 15.8286 4.31689 
2481 1 32.56 17.2675 5.75585 
843 1 36.63 14.3896 5.75585 
845 1 34.595 15.8286 4.31689 
6644 1 10.175 18.7065 4.31689 
2442 1 14.245 18.7065 4.31689 
6645 1 12.21 20.1455 5.75585 
2443 1 16.28 20.1455 5.75585 
7300 1 18.315 18.7065 4.31689 
7299 1 20.35 20.1455 5.75585 
5692 1 24.42 20.1455 5.75585 
5693 1 22.385 18.7065 4.31689 
4085 1 28.49 20.1455 5.75585 
4086 1 26.455 18.7065 4.31689 
2479 1 30.525 18.7065 4.31689 
2441 1 14.245 21.5844 4.31689 
2350 1 16.28 23.0234 5.75585 
7301 1 18.315 21.5844 4.31689 
7332 1 18.315 24.4624 4.31689 
7334 1 20.35 23.0234 5.75585 
5694 1 22.385 21.5844 4.31689 
5725 1 22.385 24.4624 4.31689 
5727 1 24.42 23.0234 5.75585 
4087 1 26.455 21.5844 4.31689 
7331 1 20.35 25.9013 5.75585 
2581 1 16.28 2.87792 8.63377 
7244 1 18.315 1.43896 7.19481 
7260 1 18.315 1.43896 10.0727 
7243 1 20.35 0 8.63377 
7258 1 20.35 2.87792 8.63377 
5637 1 22.385 1.43896 7.19481 
5651 1 24.42 2.87792 8.63377 
5653 1 22.385 1.43896 10.0727 
2577 1 14.245 4.31689 10.0727 
2583 1 14.245 4.31689 7.19481 
7049 1 12.21 5.75585 8.63377 
2584 1 16.28 5.75585 8.63377 
7256 1 18.315 4.31689 7.19481 
7261 1 18.315 4.31689 10.0727 
7255 1 20.35 5.75585 8.63377 
5648 1 24.42 5.75585 8.63377 
5649 1 22.385 4.31689 7.19481 
5654 1 22.385 4.31689 10.0727 
4041 1 28.49 5.75585 8.63377 
4042 1 26.455 4.31689 7.19481 
4047 1 26.455 4.31689 10.0727 
754 1 6.105 10.0727 10.0727 
768 1 6.105 10.0727 7.19481 
766 1 8.14 8.63377 8.63377 
6807 1 10.175 10.0727 10.0727 
6808 1 10.175 7.19481 10.0727 
6848 1 10.175 10.0727 7.19481 
7012 1 10.175 7.19481 7.19481 
2476 1 14.245 10.0727 10.0727 
2477 1 14.245 7.19481 10.0727 
2499 1 14.245 10.0727 7.19481 
2582 1 14.245 7.19481 7.19481 
6846 1 12.21 8.63377 8.63377 
2497 1 16.28 8.63377 8.63377 
7257 1 18.315 7.19481 7.19481 
7276 1 18.315 10.0727 7.19481 
7280 1 18.315 7.19481 10.0727 
7281 1 18.315 10.0727 10.0727 
7278 1 20.35 8.63377 8.63377 
5650 1 22.385 7.19481 7.19481 
5669 1 22.385 10.0727 7.19481 
5671 1 24.42 8.63377 8.63377 
5673 1 22.385 7.19481 10.0727 
5674 1 22.385 10.0727 10.0727 
4043 1 26.455 7.19481 7.19481 
4062 1 26.455 10.0727 7.19481 
4064 1 28.49 8.63377 8.63377 
4066 1 26.455 7.19481 10.0727 
4067 1 26.455 10.0727 10.0727 
2436 1 30.525 7.19481 7.19481 
2455 1 30.525 10.0727 7.19481 
2457 1 32.56 8.63377 8.63377 
2459 1 30.525 7.19481 10.0727 
2460 1 30.525 10.0727 10.0727 
848 1 34.595 10.0727 7.19481 
853 1 34.595 10.0727 10.0727 
2627 1 2.035 12.9507 10.0727 
2787 1 2.035 12.9507 7.19481 
707 1 6.105 12.9507 10.0727 
767 1 6.105 12.9507 7.19481 
2817 1 4.07 11.5117 8.63377 
769 1 8.14 11.5117 8.63377 
6564 1 10.175 12.9507 10.0727 
6847 1 10.175 12.9507 7.19481 
2433 1 14.245 12.9507 10.0727 
2498 1 14.245 12.9507 7.19481 
6849 1 12.21 11.5117 8.63377 
2501 1 16.28 11.5117 8.63377 
7277 1 18.315 12.9507 7.19481 
7308 1 18.315 12.9507 10.0727 
7275 1 20.35 11.5117 8.63377 
5668 1 24.42 11.5117 8.63377 
5670 1 22.385 12.9507 7.19481 
5701 1 22.385 12.9507 10.0727 
4061 1 28.49 11.5117 8.63377 
4063 1 26.455 12.9507 7.19481 
4094 1 26.455 12.9507 10.0727 
2454 1 32.56 11.5117 8.63377 
2456 1 30.525 12.9507 7.19481 
2487 1 30.525 12.9507 10.0727 
847 1 36.63 11.5117 8.63377 
849 1 34.595 12.9507 7.19481 
880 1 34.595 12.9507 10.0727 
21 1 38.665 12.9507 7.19481 
35 1 38.665 12.9507 10.0727 
706 1 6.105 15.8286 10.0727 
711 1 6.105 15.8286 7.19481 
2658 1 4.07 14.3896 8.63377 
709 1 8.14 14.3896 8.63377 
712 1 8.14 17.2675 8.63377 
6563 1 10.175 15.8286 10.0727 
6604 1 10.175 15.8286 7.19481 
2423 1 14.245 15.8286 10.0727 
2438 1 14.245 15.8286 7.19481 
6567 1 12.21 14.3896 8.63377 
6605 1 12.21 17.2675 8.63377 
2435 1 16.28 14.3896 8.63377 
2439 1 16.28 17.2675 8.63377 
7304 1 18.315 15.8286 7.19481 
7309 1 18.315 15.8286 10.0727 
7303 1 20.35 17.2675 8.63377 
7306 1 20.35 14.3896 8.63377 
5696 1 24.42 17.2675 8.63377 
5697 1 22.385 15.8286 7.19481 
5699 1 24.42 14.3896 8.63377 
5702 1 22.385 15.8286 10.0727 
4089 1 28.49 17.2675 8.63377 
4090 1 26.455 15.8286 7.19481 
4092 1 28.49 14.3896 8.63377 
4095 1 26.455 15.8286 10.0727 
2482 1 32.56 17.2675 8.63377 
2483 1 30.525 15.8286 7.19481 
2485 1 32.56 14.3896 8.63377 
2488 1 30.525 15.8286 10.0727 
876 1 34.595 15.8286 7.19481 
878 1 36.63 14.3896 8.63377 
881 1 34.595 15.8286 10.0727 
6244 1 10.175 18.7065 10.0727 
6603 1 10.175 18.7065 7.19481 
2345 1 14.245 18.7065 10.0727 
2437 1 14.245 18.7065 7.19481 
6282 1 12.21 20.1455 8.63377 
2347 1 16.28 20.1455 8.63377 
7305 1 18.315 18.7065 7.19481 
7340 1 18.315 18.7065 10.0727 
7338 1 20.35 20.1455 8.63377 
5698 1 22.385 18.7065 7.19481 
5731 1 24.42 20.1455 8.63377 
5733 1 22.385 18.7065 10.0727 
4091 1 26.455 18.7065 7.19481 
4124 1 28.49 20.1455 8.63377 
4126 1 26.455 18.7065 10.0727 
2484 1 30.525 18.7065 7.19481 
2519 1 30.525 18.7065 10.0727 
2344 1 14.245 21.5844 10.0727 
2348 1 14.245 21.5844 7.19481 
2349 1 16.28 23.0234 8.63377 
7336 1 18.315 21.5844 7.19481 
7337 1 18.315 24.4624 7.19481 
7341 1 18.315 21.5844 10.0727 
7372 1 18.315 24.4624 10.0727 
7335 1 20.35 23.0234 8.63377 
5728 1 24.42 23.0234 8.63377 
5729 1 22.385 21.5844 7.19481 
5730 1 22.385 24.4624 7.19481 
5734 1 22.385 21.5844 10.0727 
5765 1 22.385 24.4624 10.0727 
4122 1 26.455 21.5844 7.19481 
4127 1 26.455 21.5844 10.0727 
7370 1 20.35 25.9013 8.63377 
2579 1 16.28 2.87792 11.5117 
7264 1 18.315 1.43896 12.9507 
7259 1 20.35 2.87792 11.5117 
7262 1 20.35 0 11.5117 
5652 1 24.42 2.87792 11.5117 
5657 1 22.385 1.43896 12.9507 
2473 1 14.245 4.31689 12.9507 
6806 1 12.21 5.75585 11.5117 
2475 1 16.28 5.75585 11.5117 
7284 1 18.315 4.31689 12.9507 
7282 1 20.35 5.75585 11.5117 
5675 1 24.42 5.75585 11.5117 
5677 1 22.385 4.31689 12.9507 
4068 1 28.49 5.75585 11.5117 
4070 1 26.455 4.31689 12.9507 
693 1 6.105 10.0727 12.9507 
765 1 8.14 8.63377 11.5117 
6524 1 10.175 10.0727 12.9507 
6767 1 10.175 7.19481 12.9507 
2417 1 14.245 10.0727 12.9507 
2472 1 14.245 7.19481 12.9507 
6810 1 12.21 8.63377 11.5117 
2480 1 16.28 8.63377 11.5117 
7285 1 18.315 7.19481 12.9507 
7312 1 18.315 10.0727 12.9507 
7279 1 20.35 8.63377 11.5117 
5672 1 24.42 8.63377 11.5117 
5678 1 22.385 7.19481 12.9507 
5705 1 22.385 10.0727 12.9507 
4065 1 28.49 8.63377 11.5117 
4071 1 26.455 7.19481 12.9507 
4098 1 26.455 10.0727 12.9507 
2458 1 32.56 8.63377 11.5117 
2464 1 30.525 7.19481 12.9507 
2491 1 30.525 10.0727 12.9507 
884 1 34.595 10.0727 12.9507 
2623 1 2.035 12.9507 12.9507 
692 1 6.105 12.9507 12.9507 
2625 1 4.07 11.5117 11.5117 
696 1 8.14 11.5117 11.5117 
6523 1 10.175 12.9507 12.9507 
2408 1 14.245 12.9507 12.9507 
6527 1 12.21 11.5117 11.5117 
2422 1 16.28 11.5117 11.5117 
7313 1 18.315 12.9507 12.9507 
7310 1 20.35 11.5117 11.5117 
5703 1 24.42 11.5117 11.5117 
5706 1 22.385 12.9507 12.9507 
4096 1 28.49 11.5117 11.5117 
4099 1 26.455 12.9507 12.9507 
2489 1 32.56 11.5117 11.5117 
2492 1 30.525 12.9507 12.9507 
882 1 36.63 11.5117 11.5117 
885 1 34.595 12.9507 12.9507 
38 1 38.665 12.9507 12.9507 
631 1 6.105 15.8286 12.9507 
2657 1 4.07 14.3896 11.5117 
633 1 8.14 17.2675 11.5117 
708 1 8.14 14.3896 11.5117 
6204 1 10.175 15.8286 12.9507 
2340 1 14.245 15.8286 12.9507 
6242 1 12.21 17.2675 11.5117 
6565 1 12.21 14.3896 11.5117 
2343 1 16.28 17.2675 11.5117 
2434 1 16.28 14.3896 11.5117 
7344 1 18.315 15.8286 12.9507 
7307 1 20.35 14.3896 11.5117 
7342 1 20.35 17.2675 11.5117 
5700 1 24.42 14.3896 11.5117 
5735 1 24.42 17.2675 11.5117 
5737 1 22.385 15.8286 12.9507 
4093 1 28.49 14.3896 11.5117 
4128 1 28.49 17.2675 11.5117 
4130 1 26.455 15.8286 12.9507 
2486 1 32.56 14.3896 11.5117 
2521 1 32.56 17.2675 11.5117 
2523 1 30.525 15.8286 12.9507 
879 1 36.63 14.3896 11.5117 
916 1 34.595 15.8286 12.9507 
6203 1 10.175 18.7065 12.9507 
2339 1 14.245 18.7065 12.9507 
6246 1 12.21 20.1455 11.5117 
2346 1 16.28 20.1455 11.5117 
7345 1 18.315 18.7065 12.9507 
7339 1 20.35 20.1455 11.5117 
5732 1 24.42 20.1455 11.5117 
5738 1 22.385 18.7065 12.9507 
4125 1 28.49 20.1455 11.5117 
4131 1 26.455 18.7065 12.9507 
2524 1 30.525 18.7065 12.9507 
2263 1 14.245 21.5844 12.9507 
2292 1 16.28 23.0234 11.5117 
7376 1 18.315 21.5844 12.9507 
7377 1 18.315 24.4624 12.9507 
7374 1 20.35 23.0234 11.5117 
5767 1 24.42 23.0234 11.5117 
5769 1 22.385 21.5844 12.9507 
5770 1 22.385 24.4624 12.9507 
4162 1 26.455 21.5844 12.9507 
7371 1 20.35 25.9013 11.5117 
2470 1 16.28 2.87792 17.2675 
2471 1 16.28 2.87792 14.3896 
7288 1 18.315 1.43896 15.8286 
7263 1 20.35 0 14.3896 
7286 1 20.35 2.87792 14.3896 
7287 1 20.35 2.87792 17.2675 
7290 1 20.35 0 17.2675 
5679 1 24.42 2.87792 14.3896 
5680 1 24.42 2.87792 17.2675 
5681 1 22.385 1.43896 15.8286 
2468 1 14.245 4.31689 15.8286 
6447 1 12.21 5.75585 17.2675 
6805 1 12.21 5.75585 14.3896 
2403 1 16.28 5.75585 17.2675 
2474 1 16.28 5.75585 14.3896 
7289 1 18.315 4.31689 15.8286 
7283 1 20.35 5.75585 14.3896 
7318 1 20.35 5.75585 17.2675 
5676 1 24.42 5.75585 14.3896 
5682 1 22.385 4.31689 15.8286 
5711 1 24.42 5.75585 17.2675 
4069 1 28.49 5.75585 14.3896 
4075 1 26.455 4.31689 15.8286 
4104 1 28.49 5.75585 17.2675 
688 1 6.105 10.0727 15.8286 
690 1 8.14 8.63377 17.2675 
691 1 8.14 8.63377 14.3896 
6483 1 10.175 10.0727 15.8286 
6484 1 10.175 7.19481 15.8286 
2404 1 14.245 10.0727 15.8286 
2405 1 14.245 7.19481 15.8286 
6485 1 12.21 8.63377 17.2675 
6487 1 12.21 8.63377 14.3896 
2406 1 16.28 8.63377 17.2675 
2407 1 16.28 8.63377 14.3896 
7316 1 18.315 7.19481 15.8286 
7317 1 18.315 10.0727 15.8286 
7314 1 20.35 8.63377 14.3896 
7315 1 20.35 8.63377 17.2675 
5707 1 24.42 8.63377 14.3896 
5708 1 24.42 8.63377 17.2675 
5709 1 22.385 7.19481 15.8286 
5710 1 22.385 10.0727 15.8286 
4100 1 28.49 8.63377 14.3896 
4101 1 28.49 8.63377 17.2675 
4102 1 26.455 7.19481 15.8286 
4103 1 26.455 10.0727 15.8286 
2493 1 32.56 8.63377 14.3896 
2494 1 32.56 8.63377 17.2675 
2495 1 30.525 7.19481 15.8286 
2496 1 30.525 10.0727 15.8286 
889 1 34.595 10.0727 15.8286 
2409 1 2.035 12.9507 15.8286 
627 1 6.105 12.9507 15.8286 
2370 1 4.07 11.5117 17.2675 
2624 1 4.07 11.5117 14.3896 
616 1 8.14 11.5117 17.2675 
694 1 8.14 11.5117 14.3896 
6164 1 10.175 12.9507 15.8286 
2336 1 14.245 12.9507 15.8286 
6162 1 12.21 11.5117 17.2675 
6525 1 12.21 11.5117 14.3896 
2333 1 16.28 11.5117 17.2675 
2421 1 16.28 11.5117 14.3896 
7348 1 18.315 12.9507 15.8286 
7311 1 20.35 11.5117 14.3896 
7350 1 20.35 11.5117 17.2675 
5704 1 24.42 11.5117 14.3896 
5741 1 22.385 12.9507 15.8286 
5743 1 24.42 11.5117 17.2675 
4097 1 28.49 11.5117 14.3896 
4134 1 26.455 12.9507 15.8286 
4136 1 28.49 11.5117 17.2675 
2490 1 32.56 11.5117 14.3896 
2527 1 30.525 12.9507 15.8286 
2529 1 32.56 11.5117 17.2675 
883 1 36.63 11.5117 14.3896 
920 1 34.595 12.9507 15.8286 
922 1 36.63 11.5117 17.2675 
55 1 38.665 12.9507 15.8286 
626 1 6.105 15.8286 15.8286 
2410 1 4.07 14.3896 17.2675 
2413 1 4.07 14.3896 14.3896 
553 1 8.14 17.2675 17.2675 
628 1 8.14 14.3896 17.2675 
629 1 8.14 14.3896 14.3896 
632 1 8.14 17.2675 14.3896 
6163 1 10.175 15.8286 15.8286 
2334 1 14.245 15.8286 15.8286 
5842 1 12.21 17.2675 17.2675 
6166 1 12.21 14.3896 17.2675 
6202 1 12.21 14.3896 14.3896 
6206 1 12.21 17.2675 14.3896 
2254 1 16.28 17.2675 17.2675 
2337 1 16.28 14.3896 17.2675 
2338 1 16.28 14.3896 14.3896 
2341 1 16.28 17.2675 14.3896 
7349 1 18.315 15.8286 15.8286 
7343 1 20.35 17.2675 14.3896 
7346 1 20.35 14.3896 14.3896 
7347 1 20.35 14.3896 17.2675 
7382 1 20.35 17.2675 17.2675 
5736 1 24.42 17.2675 14.3896 
5739 1 24.42 14.3896 14.3896 
5740 1 24.42 14.3896 17.2675 
5742 1 22.385 15.8286 15.8286 
5775 1 24.42 17.2675 17.2675 
4129 1 28.49 17.2675 14.3896 
4132 1 28.49 14.3896 14.3896 
4133 1 28.49 14.3896 17.2675 
4135 1 26.455 15.8286 15.8286 
4168 1 28.49 17.2675 17.2675 
2522 1 32.56 17.2675 14.3896 
2525 1 32.56 14.3896 14.3896 
2526 1 32.56 14.3896 17.2675 
2528 1 30.525 15.8286 15.8286 
2561 1 32.56 17.2675 17.2675 
918 1 36.63 14.3896 14.3896 
919 1 36.63 14.3896 17.2675 
921 1 34.595 15.8286 15.8286 
5844 1 10.175 18.7065 15.8286 
2257 1 14.245 18.7065 15.8286 
5846 1 12.21 20.1455 17.2675 
5882 1 12.21 20.1455 14.3896 
2258 1 16.28 20.1455 17.2675 
2260 1 16.28 20.1455 14.3896 
7380 1 18.315 18.7065 15.8286 
7378 1 20.35 20.1455 14.3896 
7379 1 20.35 20.1455 17.2675 
5771 1 24.42 20.1455 14.3896 
5772 1 24.42 20.1455 17.2675 
5773 1 22.385 18.7065 15.8286 
4164 1 28.49 20.1455 14.3896 
4165 1 28.49 20.1455 17.2675 
4166 1 26.455 18.7065 15.8286 
2559 1 30.525 18.7065 15.8286 
2256 1 14.245 21.5844 15.8286 
2217 1 16.28 23.0234 17.2675 
2268 1 16.28 23.0234 14.3896 
7381 1 18.315 21.5844 15.8286 
7412 1 18.315 24.4624 15.8286 
7375 1 20.35 23.0234 14.3896 
7414 1 20.35 23.0234 17.2675 
5768 1 24.42 23.0234 14.3896 
5774 1 22.385 21.5844 15.8286 
5805 1 22.385 24.4624 15.8286 
5807 1 24.42 23.0234 17.2675 
4167 1 26.455 21.5844 15.8286 
7410 1 20.35 25.9013 14.3896 
7411 1 20.35 25.9013 17.2675 
2399 1 16.28 2.87792 20.1455 
7292 1 18.315 1.43896 18.7065 
7291 1 20.35 0 20.1455 
7322 1 20.35 2.87792 20.1455 
5685 1 22.385 1.43896 18.7065 
5715 1 24.42 2.87792 20.1455 
2401 1 14.245 4.31689 18.7065 
6445 1 12.21 5.75585 20.1455 
2402 1 16.28 5.75585 20.1455 
7320 1 18.315 4.31689 18.7065 
7319 1 20.35 5.75585 20.1455 
5712 1 24.42 5.75585 20.1455 
5713 1 22.385 4.31689 18.7065 
4105 1 28.49 5.75585 20.1455 
4106 1 26.455 4.31689 18.7065 
613 1 6.105 10.0727 18.7065 
611 1 8.14 8.63377 20.1455 
6124 1 10.175 10.0727 18.7065 
6443 1 10.175 7.19481 18.7065 
2323 1 14.245 10.0727 18.7065 
2400 1 14.245 7.19481 18.7065 
6122 1 12.21 8.63377 20.1455 
2306 1 16.28 8.63377 20.1455 
7321 1 18.315 7.19481 18.7065 
7352 1 18.315 10.0727 18.7065 
7354 1 20.35 8.63377 20.1455 
5714 1 22.385 7.19481 18.7065 
5745 1 22.385 10.0727 18.7065 
5747 1 24.42 8.63377 20.1455 
4107 1 26.455 7.19481 18.7065 
4138 1 26.455 10.0727 18.7065 
4140 1 28.49 8.63377 20.1455 
2500 1 30.525 7.19481 18.7065 
2531 1 30.525 10.0727 18.7065 
2533 1 32.56 8.63377 20.1455 
924 1 34.595 10.0727 18.7065 
2342 1 2.035 12.9507 18.7065 
612 1 6.105 12.9507 18.7065 
2369 1 4.07 11.5117 20.1455 
614 1 8.14 11.5117 20.1455 
6123 1 10.175 12.9507 18.7065 
2318 1 14.245 12.9507 18.7065 
6126 1 12.21 11.5117 20.1455 
2332 1 16.28 11.5117 20.1455 
7353 1 18.315 12.9507 18.7065 
7351 1 20.35 11.5117 20.1455 
5744 1 24.42 11.5117 20.1455 
5746 1 22.385 12.9507 18.7065 
4137 1 28.49 11.5117 20.1455 
4139 1 26.455 12.9507 18.7065 
2530 1 32.56 11.5117 20.1455 
2532 1 30.525 12.9507 18.7065 
923 1 36.63 11.5117 20.1455 
925 1 34.595 12.9507 18.7065 
58 1 38.665 12.9507 18.7065 
551 1 6.105 15.8286 18.7065 
2132 1 4.07 14.3896 20.1455 
549 1 8.14 14.3896 20.1455 
552 1 8.14 17.2675 20.1455 
5804 1 10.175 15.8286 18.7065 
2252 1 14.245 15.8286 18.7065 
5802 1 12.21 14.3896 20.1455 
5806 1 12.21 17.2675 20.1455 
2241 1 16.28 14.3896 20.1455 
2253 1 16.28 17.2675 20.1455 
7384 1 18.315 15.8286 18.7065 
7383 1 20.35 17.2675 20.1455 
7386 1 20.35 14.3896 20.1455 
5776 1 24.42 17.2675 20.1455 
5777 1 22.385 15.8286 18.7065 
5779 1 24.42 14.3896 20.1455 
4169 1 28.49 17.2675 20.1455 
4170 1 26.455 15.8286 18.7065 
4172 1 28.49 14.3896 20.1455 
2562 1 32.56 17.2675 20.1455 
2563 1 30.525 15.8286 18.7065 
2565 1 32.56 14.3896 20.1455 
956 1 34.595 15.8286 18.7065 
958 1 36.63 14.3896 20.1455 
5803 1 10.175 18.7065 18.7065 
2243 1 14.245 18.7065 18.7065 
5563 1 12.21 20.1455 20.1455 
2213 1 16.28 20.1455 20.1455 
7385 1 18.315 18.7065 18.7065 
7418 1 20.35 20.1455 20.1455 
5778 1 22.385 18.7065 18.7065 
5811 1 24.42 20.1455 20.1455 
4171 1 26.455 18.7065 18.7065 
4204 1 28.49 20.1455 20.1455 
2564 1 30.525 18.7065 18.7065 
2214 1 14.245 21.5844 18.7065 
2216 1 16.28 23.0234 20.1455 
7416 1 18.315 21.5844 18.7065 
7417 1 18.315 24.4624 18.7065 
7415 1 20.35 23.0234 20.1455 
5808 1 24.42 23.0234 20.1455 
5809 1 22.385 21.5844 18.7065 
5810 1 22.385 24.4624 18.7065 
4202 1 26.455 21.5844 18.7065 
7450 1 20.35 25.9013 20.1455 
2398 1 16.28 2.87792 23.0234 
7324 1 18.315 1.43896 21.5844 
7328 1 18.315 1.43896 24.4624 
7323 1 20.35 2.87792 23.0234 
7326 1 20.35 0 23.0234 
5716 1 24.42 2.87792 23.0234 
5717 1 22.385 1.43896 21.5844 
5721 1 22.385 1.43896 24.4624 
2300 1 14.245 4.31689 24.4624 
2360 1 14.245 4.31689 21.5844 
6082 1 12.21 5.75585 23.0234 
2302 1 16.28 5.75585 23.0234 
7325 1 18.315 4.31689 21.5844 
7360 1 18.315 4.31689 24.4624 
7358 1 20.35 5.75585 23.0234 
5718 1 22.385 4.31689 21.5844 
5751 1 24.42 5.75585 23.0234 
5753 1 22.385 4.31689 24.4624 
4111 1 26.455 4.31689 21.5844 
4144 1 28.49 5.75585 23.0234 
4146 1 26.455 4.31689 24.4624 
533 1 6.105 10.0727 24.4624 
608 1 6.105 10.0727 21.5844 
610 1 8.14 8.63377 23.0234 
5724 1 10.175 10.0727 24.4624 
6043 1 10.175 7.19481 24.4624 
6083 1 10.175 10.0727 21.5844 
6084 1 10.175 7.19481 21.5844 
2235 1 14.245 10.0727 24.4624 
2299 1 14.245 7.19481 24.4624 
2303 1 14.245 10.0727 21.5844 
2304 1 14.245 7.19481 21.5844 
6086 1 12.21 8.63377 23.0234 
2305 1 16.28 8.63377 23.0234 
7356 1 18.315 7.19481 21.5844 
7357 1 18.315 10.0727 21.5844 
7361 1 18.315 7.19481 24.4624 
7392 1 18.315 10.0727 24.4624 
7355 1 20.35 8.63377 23.0234 
5748 1 24.42 8.63377 23.0234 
5749 1 22.385 7.19481 21.5844 
5750 1 22.385 10.0727 21.5844 
5754 1 22.385 7.19481 24.4624 
5785 1 22.385 10.0727 24.4624 
4141 1 28.49 8.63377 23.0234 
4142 1 26.455 7.19481 21.5844 
4143 1 26.455 10.0727 21.5844 
4147 1 26.455 7.19481 24.4624 
4178 1 26.455 10.0727 24.4624 
2534 1 32.56 8.63377 23.0234 
2535 1 30.525 7.19481 21.5844 
2536 1 30.525 10.0727 21.5844 
2540 1 30.525 7.19481 24.4624 
2571 1 30.525 10.0727 24.4624 
929 1 34.595 10.0727 21.5844 
964 1 34.595 10.0727 24.4624 
2100 1 2.035 12.9507 24.4624 
2104 1 2.035 12.9507 21.5844 
532 1 6.105 12.9507 24.4624 
547 1 6.105 12.9507 21.5844 
2102 1 4.07 11.5117 23.0234 
536 1 8.14 11.5117 23.0234 
5723 1 10.175 12.9507 24.4624 
5764 1 10.175 12.9507 21.5844 
2234 1 14.245 12.9507 24.4624 
2239 1 14.245 12.9507 21.5844 
5762 1 12.21 11.5117 23.0234 
2237 1 16.28 11.5117 23.0234 
7388 1 18.315 12.9507 21.5844 
7393 1 18.315 12.9507 24.4624 
7390 1 20.35 11.5117 23.0234 
5781 1 22.385 12.9507 21.5844 
5783 1 24.42 11.5117 23.0234 
5786 1 22.385 12.9507 24.4624 
4174 1 26.455 12.9507 21.5844 
4176 1 28.49 11.5117 23.0234 
4179 1 26.455 12.9507 24.4624 
2567 1 30.525 12.9507 21.5844 
2569 1 32.56 11.5117 23.0234 
2572 1 30.525 12.9507 24.4624 
960 1 34.595 12.9507 21.5844 
962 1 36.63 11.5117 23.0234 
965 1 34.595 12.9507 24.4624 
75 1 38.665 12.9507 21.5844 
78 1 38.665 12.9507 24.4624 
471 1 6.105 15.8286 24.4624 
546 1 6.105 15.8286 21.5844 
2106 1 4.07 14.3896 23.0234 
473 1 8.14 17.2675 23.0234 
548 1 8.14 14.3896 23.0234 
5557 1 10.175 15.8286 24.4624 
5763 1 10.175 15.8286 21.5844 
2180 1 14.245 15.8286 24.4624 
2238 1 14.245 15.8286 21.5844 
5559 1 12.21 17.2675 23.0234 
5766 1 12.21 14.3896 23.0234 
2182 1 16.28 17.2675 23.0234 
2240 1 16.28 14.3896 23.0234 
7389 1 18.315 15.8286 21.5844 
7424 1 18.315 15.8286 24.4624 
7387 1 20.35 14.3896 23.0234 
7422 1 20.35 17.2675 23.0234 
5780 1 24.42 14.3896 23.0234 
5782 1 22.385 15.8286 21.5844 
5815 1 24.42 17.2675 23.0234 
5817 1 22.385 15.8286 24.4624 
4173 1 28.49 14.3896 23.0234 
4175 1 26.455 15.8286 21.5844 
4208 1 28.49 17.2675 23.0234 
4210 1 26.455 15.8286 24.4624 
2566 1 32.56 14.3896 23.0234 
2568 1 30.525 15.8286 21.5844 
2601 1 32.56 17.2675 23.0234 
2603 1 30.525 15.8286 24.4624 
959 1 36.63 14.3896 23.0234 
961 1 34.595 15.8286 21.5844 
996 1 34.595 15.8286 24.4624 
5529 1 10.175 18.7065 24.4624 
5561 1 10.175 18.7065 21.5844 
2179 1 14.245 18.7065 24.4624 
2184 1 14.245 18.7065 21.5844 
5562 1 12.21 20.1455 23.0234 
2212 1 16.28 20.1455 23.0234 
7420 1 18.315 18.7065 21.5844 
7425 1 18.315 18.7065 24.4624 
7419 1 20.35 20.1455 23.0234 
5812 1 24.42 20.1455 23.0234 
5813 1 22.385 18.7065 21.5844 
5818 1 22.385 18.7065 24.4624 
4205 1 28.49 20.1455 23.0234 
4206 1 26.455 18.7065 21.5844 
4211 1 26.455 18.7065 24.4624 
2599 1 30.525 18.7065 21.5844 
2604 1 30.525 18.7065 24.4624 
2144 1 14.245 21.5844 24.4624 
2183 1 14.245 21.5844 21.5844 
2146 1 16.28 23.0234 23.0234 
7421 1 18.315 21.5844 21.5844 
7452 1 18.315 24.4624 21.5844 
7456 1 18.315 21.5844 24.4624 
7457 1 18.315 24.4624 24.4624 
7454 1 20.35 23.0234 23.0234 
5814 1 22.385 21.5844 21.5844 
5845 1 22.385 24.4624 21.5844 
5847 1 24.42 23.0234 23.0234 
5849 1 22.385 21.5844 24.4624 
5850 1 22.385 24.4624 24.4624 
4207 1 26.455 21.5844 21.5844 
4242 1 26.455 21.5844 24.4624 
7451 1 20.35 25.9013 23.0234 
2298 1 16.28 2.87792 25.9013 
7364 1 18.315 1.43896 27.3403 
7327 1 20.35 0 25.9013 
7362 1 20.35 2.87792 25.9013 
5755 1 24.42 2.87792 25.9013 
5757 1 22.385 1.43896 27.3403 
2294 1 14.245 4.31689 27.3403 
6046 1 12.21 5.75585 25.9013 
2301 1 16.28 5.75585 25.9013 
7365 1 18.315 4.31689 27.3403 
7359 1 20.35 5.75585 25.9013 
5752 1 24.42 5.75585 25.9013 
5758 1 22.385 4.31689 27.3403 
4145 1 28.49 5.75585 25.9013 
4151 1 26.455 4.31689 27.3403 
528 1 6.105 10.0727 27.3403 
531 1 8.14 8.63377 25.9013 
5620 1 10.175 10.0727 27.3403 
5621 1 10.175 7.19481 27.3403 
2225 1 14.245 10.0727 27.3403 
2226 1 14.245 7.19481 27.3403 
5722 1 12.21 8.63377 25.9013 
2233 1 16.28 8.63377 25.9013 
7396 1 18.315 7.19481 27.3403 
7397 1 18.315 10.0727 27.3403 
7394 1 20.35 8.63377 25.9013 
5787 1 24.42 8.63377 25.9013 
5789 1 22.385 7.19481 27.3403 
5790 1 22.385 10.0727 27.3403 
4180 1 28.49 8.63377 25.9013 
4182 1 26.455 7.19481 27.3403 
4183 1 26.455 10.0727 27.3403 
2573 1 32.56 8.63377 25.9013 
2575 1 30.525 7.19481 27.3403 
2576 1 30.525 10.0727 27.3403 
969 1 34.595 10.0727 27.3403 
2011 1 2.035 12.9507 27.3403 
467 1 6.105 12.9507 27.3403 
2101 1 4.07 11.5117 25.9013 
534 1 8.14 11.5117 25.9013 
5525 1 10.175 12.9507 27.3403 
2176 1 14.245 12.9507 27.3403 
5726 1 12.21 11.5117 25.9013 
2236 1 16.28 11.5117 25.9013 
7428 1 18.315 12.9507 27.3403 
7391 1 20.35 11.5117 25.9013 
5784 1 24.42 11.5117 25.9013 
5821 1 22.385 12.9507 27.3403 
4177 1 28.49 11.5117 25.9013 
4214 1 26.455 12.9507 27.3403 
2570 1 32.56 11.5117 25.9013 
2607 1 30.525 12.9507 27.3403 
963 1 36.63 11.5117 25.9013 
1000 1 34.595 12.9507 27.3403 
95 1 38.665 12.9507 27.3403 
466 1 6.105 15.8286 27.3403 
2014 1 4.07 14.3896 25.9013 
469 1 8.14 14.3896 25.9013 
472 1 8.14 17.2675 25.9013 
5524 1 10.175 15.8286 27.3403 
2174 1 14.245 15.8286 27.3403 
5527 1 12.21 14.3896 25.9013 
5558 1 12.21 17.2675 25.9013 
2178 1 16.28 14.3896 25.9013 
2181 1 16.28 17.2675 25.9013 
7429 1 18.315 15.8286 27.3403 
7423 1 20.35 17.2675 25.9013 
7426 1 20.35 14.3896 25.9013 
5816 1 24.42 17.2675 25.9013 
5819 1 24.42 14.3896 25.9013 
5822 1 22.385 15.8286 27.3403 
4209 1 28.49 17.2675 25.9013 
4212 1 28.49 14.3896 25.9013 
4215 1 26.455 15.8286 27.3403 
2602 1 32.56 17.2675 25.9013 
2605 1 32.56 14.3896 25.9013 
2608 1 30.525 15.8286 27.3403 
998 1 36.63 14.3896 25.9013 
1001 1 34.595 15.8286 27.3403 
5365 1 10.175 18.7065 27.3403 
2141 1 14.245 18.7065 27.3403 
5367 1 12.21 20.1455 25.9013 
2143 1 16.28 20.1455 25.9013 
7460 1 18.315 18.7065 27.3403 
7458 1 20.35 20.1455 25.9013 
5851 1 24.42 20.1455 25.9013 
5853 1 22.385 18.7065 27.3403 
4244 1 28.49 20.1455 25.9013 
4246 1 26.455 18.7065 27.3403 
2639 1 30.525 18.7065 27.3403 
2140 1 14.245 21.5844 27.3403 
2145 1 16.28 23.0234 25.9013 
7461 1 18.315 21.5844 27.3403 
7492 1 18.315 24.4624 27.3403 
7455 1 20.35 23.0234 25.9013 